 # Deformed crystal: sample 20
 
         288  atoms
           1  atom types
 
      0.00000000       5.146365361842341  xlo xhi
      0.00000000      8.913766281023523  ylo yhi
      0.00000000      75.63581499868472  zlo zhi
 
Masses
 
           1   63.54600000    # Cu
 
Atoms # atomic
 
         1    1       -1.28659134      -2.22844157       0.00000000
         2    1       -1.28659134       0.74281386       2.10099486
         3    1       -1.28659134      -0.74281386       4.20198972
         4    1       -0.00000000      -0.00000000       0.00000000
         5    1       -0.00000000      -1.48562771       2.10099486
         6    1       -0.00000000       1.48562771       4.20198972
         7    1        1.28659134      -2.22844157       0.00000000
         8    1        1.28659134       0.74281386       2.10099486
         9    1        1.28659134      -0.74281386       4.20198972
        10    1        2.57318268      -0.00000000       0.00000000
        11    1        2.57318268      -1.48562771       2.10099486
        12    1        2.57318268       1.48562771       4.20198972
        13    1       -1.28659134       2.22844157       0.00000000
        14    1       -1.28659134       5.19969700       2.10099486
        15    1       -1.28659134       3.71406928       4.20198972
        16    1       -0.00000000       4.45688314       0.00000000
        17    1       -0.00000000       2.97125543       2.10099486
        18    1       -0.00000000       5.94251085       4.20198972
        19    1        1.28659134       2.22844157       0.00000000
        20    1        1.28659134       5.19969700       2.10099486
        21    1        1.28659134       3.71406928       4.20198972
        22    1        2.57318268       4.45688314       0.00000000
        23    1        2.57318268       2.97125543       2.10099486
        24    1        2.57318268       5.94251085       4.20198972
        25    1       -1.28659134      -2.22844157       6.30298458
        26    1       -1.28659134       0.74281386       8.40397944
        27    1       -1.28659134      -0.74281386      10.50497431
        28    1       -0.00000000      -0.00000000       6.30298458
        29    1       -0.00000000      -1.48562771       8.40397944
        30    1       -0.00000000       1.48562771      10.50497431
        31    1        1.28659134      -2.22844157       6.30298458
        32    1        1.28659134       0.74281386       8.40397944
        33    1        1.28659134      -0.74281386      10.50497431
        34    1        2.57318268      -0.00000000       6.30298458
        35    1        2.57318268      -1.48562771       8.40397944
        36    1        2.57318268       1.48562771      10.50497431
        37    1       -1.28659134       2.22844157       6.30298458
        38    1       -1.28659134       5.19969700       8.40397944
        39    1       -1.28659134       3.71406928      10.50497431
        40    1       -0.00000000       4.45688314       6.30298458
        41    1       -0.00000000       2.97125543       8.40397944
        42    1       -0.00000000       5.94251085      10.50497431
        43    1        1.28659134       2.22844157       6.30298458
        44    1        1.28659134       5.19969700       8.40397944
        45    1        1.28659134       3.71406928      10.50497431
        46    1        2.57318268       4.45688314       6.30298458
        47    1        2.57318268       2.97125543       8.40397944
        48    1        2.57318268       5.94251085      10.50497431
        49    1       -1.28659134      -2.22844157      12.60596917
        50    1       -1.28659134       0.74281386      14.70696403
        51    1       -1.28659134      -0.74281386      16.80795889
        52    1       -0.00000000      -0.00000000      12.60596917
        53    1       -0.00000000      -1.48562771      14.70696403
        54    1       -0.00000000       1.48562771      16.80795889
        55    1        1.28659134      -2.22844157      12.60596917
        56    1        1.28659134       0.74281386      14.70696403
        57    1        1.28659134      -0.74281386      16.80795889
        58    1        2.57318268      -0.00000000      12.60596917
        59    1        2.57318268      -1.48562771      14.70696403
        60    1        2.57318268       1.48562771      16.80795889
        61    1       -1.28659134       2.22844157      12.60596917
        62    1       -1.28659134       5.19969700      14.70696403
        63    1       -1.28659134       3.71406928      16.80795889
        64    1       -0.00000000       4.45688314      12.60596917
        65    1       -0.00000000       2.97125543      14.70696403
        66    1       -0.00000000       5.94251085      16.80795889
        67    1        1.28659134       2.22844157      12.60596917
        68    1        1.28659134       5.19969700      14.70696403
        69    1        1.28659134       3.71406928      16.80795889
        70    1        2.57318268       4.45688314      12.60596917
        71    1        2.57318268       2.97125543      14.70696403
        72    1        2.57318268       5.94251085      16.80795889
        73    1       -1.28659134      -2.22844157      18.90895375
        74    1       -1.28659134       0.74281386      21.00994861
        75    1       -1.28659134      -0.74281386      23.11094347
        76    1       -0.00000000      -0.00000000      18.90895375
        77    1       -0.00000000      -1.48562771      21.00994861
        78    1       -0.00000000       1.48562771      23.11094347
        79    1        1.28659134      -2.22844157      18.90895375
        80    1        1.28659134       0.74281386      21.00994861
        81    1        1.28659134      -0.74281386      23.11094347
        82    1        2.57318268      -0.00000000      18.90895375
        83    1        2.57318268      -1.48562771      21.00994861
        84    1        2.57318268       1.48562771      23.11094347
        85    1       -1.28659134       2.22844157      18.90895375
        86    1       -1.28659134       5.19969700      21.00994861
        87    1       -1.28659134       3.71406928      23.11094347
        88    1       -0.00000000       4.45688314      18.90895375
        89    1       -0.00000000       2.97125543      21.00994861
        90    1       -0.00000000       5.94251085      23.11094347
        91    1        1.28659134       2.22844157      18.90895375
        92    1        1.28659134       5.19969700      21.00994861
        93    1        1.28659134       3.71406928      23.11094347
        94    1        2.57318268       4.45688314      18.90895375
        95    1        2.57318268       2.97125543      21.00994861
        96    1        2.57318268       5.94251085      23.11094347
        97    1       -1.28659134      -2.22844157      25.21193833
        98    1       -1.28659134       0.74281386      27.31293319
        99    1       -1.28659134      -0.74281386      29.41392806
       100    1       -0.00000000      -0.00000000      25.21193833
       101    1       -0.00000000      -1.48562771      27.31293319
       102    1       -0.00000000       1.48562771      29.41392806
       103    1        1.28659134      -2.22844157      25.21193833
       104    1        1.28659134       0.74281386      27.31293319
       105    1        1.28659134      -0.74281386      29.41392806
       106    1        2.57318268      -0.00000000      25.21193833
       107    1        2.57318268      -1.48562771      27.31293319
       108    1        2.57318268       1.48562771      29.41392806
       109    1       -1.28659134       2.22844157      25.21193833
       110    1       -1.28659134       5.19969700      27.31293319
       111    1       -1.28659134       3.71406928      29.41392806
       112    1       -0.00000000       4.45688314      25.21193833
       113    1       -0.00000000       2.97125543      27.31293319
       114    1       -0.00000000       5.94251085      29.41392806
       115    1        1.28659134       2.22844157      25.21193833
       116    1        1.28659134       5.19969700      27.31293319
       117    1        1.28659134       3.71406928      29.41392806
       118    1        2.57318268       4.45688314      25.21193833
       119    1        2.57318268       2.97125543      27.31293319
       120    1        2.57318268       5.94251085      29.41392806
       121    1       -1.28659134      -2.22844157      31.51492292
       122    1       -1.28659134       0.74281386      33.61591778
       123    1       -1.28659134      -0.74281386      35.71691264
       124    1       -0.00000000      -0.00000000      31.51492292
       125    1       -0.00000000      -1.48562771      33.61591778
       126    1       -0.00000000       1.48562771      35.71691264
       127    1        1.28659134      -2.22844157      31.51492292
       128    1        1.28659134       0.74281386      33.61591778
       129    1        1.28659134      -0.74281386      35.71691264
       130    1        2.57318268      -0.00000000      31.51492292
       131    1        2.57318268      -1.48562771      33.61591778
       132    1        2.57318268       1.48562771      35.71691264
       133    1       -1.28659134       2.22844157      31.51492292
       134    1       -1.28659134       5.19969700      33.61591778
       135    1       -1.28659134       3.71406928      35.71691264
       136    1       -0.00000000       4.45688314      31.51492292
       137    1       -0.00000000       2.97125543      33.61591778
       138    1       -0.00000000       5.94251085      35.71691264
       139    1        1.28659134       2.22844157      31.51492292
       140    1        1.28659134       5.19969700      33.61591778
       141    1        1.28659134       3.71406928      35.71691264
       142    1        2.57318268       4.45688314      31.51492292
       143    1        2.57318268       2.97125543      33.61591778
       144    1        2.57318268       5.94251085      35.71691264
       145    1        1.28659134       2.22844157      37.81790750
       146    1        1.28659134       5.19969700      39.91890236
       147    1        1.28659134       3.71406928      42.01989722
       148    1        2.57318268       4.45688314      37.81790750
       149    1        2.57318268       2.97125543      39.91890236
       150    1        2.57318268       5.94251085      42.01989722
       151    1        3.85977402       2.22844157      37.81790750
       152    1        3.85977402       5.19969700      39.91890236
       153    1        3.85977402       3.71406928      42.01989722
       154    1        5.14636536       4.45688314      37.81790750
       155    1        5.14636536       2.97125543      39.91890236
       156    1        5.14636536       5.94251085      42.01989722
       157    1        1.28659134       6.68532471      37.81790750
       158    1        1.28659134       9.65658014      39.91890236
       159    1        1.28659134       8.17095242      42.01989722
       160    1        2.57318268       8.91376628      37.81790750
       161    1        2.57318268       7.42813857      39.91890236
       162    1        2.57318268      10.39939399      42.01989722
       163    1        3.85977402       6.68532471      37.81790750
       164    1        3.85977402       9.65658014      39.91890236
       165    1        3.85977402       8.17095242      42.01989722
       166    1        5.14636536       8.91376628      37.81790750
       167    1        5.14636536       7.42813857      39.91890236
       168    1        5.14636536      10.39939399      42.01989722
       169    1        1.28659134       2.22844157      44.12089208
       170    1        1.28659134       5.19969700      46.22188694
       171    1        1.28659134       3.71406928      48.32288181
       172    1        2.57318268       4.45688314      44.12089208
       173    1        2.57318268       2.97125543      46.22188694
       174    1        2.57318268       5.94251085      48.32288181
       175    1        3.85977402       2.22844157      44.12089208
       176    1        3.85977402       5.19969700      46.22188694
       177    1        3.85977402       3.71406928      48.32288181
       178    1        5.14636536       4.45688314      44.12089208
       179    1        5.14636536       2.97125543      46.22188694
       180    1        5.14636536       5.94251085      48.32288181
       181    1        1.28659134       6.68532471      44.12089208
       182    1        1.28659134       9.65658014      46.22188694
       183    1        1.28659134       8.17095242      48.32288181
       184    1        2.57318268       8.91376628      44.12089208
       185    1        2.57318268       7.42813857      46.22188694
       186    1        2.57318268      10.39939399      48.32288181
       187    1        3.85977402       6.68532471      44.12089208
       188    1        3.85977402       9.65658014      46.22188694
       189    1        3.85977402       8.17095242      48.32288181
       190    1        5.14636536       8.91376628      44.12089208
       191    1        5.14636536       7.42813857      46.22188694
       192    1        5.14636536      10.39939399      48.32288181
       193    1        1.28659134       2.22844157      50.42387667
       194    1        1.28659134       5.19969700      52.52487153
       195    1        1.28659134       3.71406928      54.62586639
       196    1        2.57318268       4.45688314      50.42387667
       197    1        2.57318268       2.97125543      52.52487153
       198    1        2.57318268       5.94251085      54.62586639
       199    1        3.85977402       2.22844157      50.42387667
       200    1        3.85977402       5.19969700      52.52487153
       201    1        3.85977402       3.71406928      54.62586639
       202    1        5.14636536       4.45688314      50.42387667
       203    1        5.14636536       2.97125543      52.52487153
       204    1        5.14636536       5.94251085      54.62586639
       205    1        1.28659134       6.68532471      50.42387667
       206    1        1.28659134       9.65658014      52.52487153
       207    1        1.28659134       8.17095242      54.62586639
       208    1        2.57318268       8.91376628      50.42387667
       209    1        2.57318268       7.42813857      52.52487153
       210    1        2.57318268      10.39939399      54.62586639
       211    1        3.85977402       6.68532471      50.42387667
       212    1        3.85977402       9.65658014      52.52487153
       213    1        3.85977402       8.17095242      54.62586639
       214    1        5.14636536       8.91376628      50.42387667
       215    1        5.14636536       7.42813857      52.52487153
       216    1        5.14636536      10.39939399      54.62586639
       217    1        1.28659134       2.22844157      56.72686125
       218    1        1.28659134       5.19969700      58.82785611
       219    1        1.28659134       3.71406928      60.92885097
       220    1        2.57318268       4.45688314      56.72686125
       221    1        2.57318268       2.97125543      58.82785611
       222    1        2.57318268       5.94251085      60.92885097
       223    1        3.85977402       2.22844157      56.72686125
       224    1        3.85977402       5.19969700      58.82785611
       225    1        3.85977402       3.71406928      60.92885097
       226    1        5.14636536       4.45688314      56.72686125
       227    1        5.14636536       2.97125543      58.82785611
       228    1        5.14636536       5.94251085      60.92885097
       229    1        1.28659134       6.68532471      56.72686125
       230    1        1.28659134       9.65658014      58.82785611
       231    1        1.28659134       8.17095242      60.92885097
       232    1        2.57318268       8.91376628      56.72686125
       233    1        2.57318268       7.42813857      58.82785611
       234    1        2.57318268      10.39939399      60.92885097
       235    1        3.85977402       6.68532471      56.72686125
       236    1        3.85977402       9.65658014      58.82785611
       237    1        3.85977402       8.17095242      60.92885097
       238    1        5.14636536       8.91376628      56.72686125
       239    1        5.14636536       7.42813857      58.82785611
       240    1        5.14636536      10.39939399      60.92885097
       241    1        1.28659134       2.22844157      63.02984583
       242    1        1.28659134       5.19969700      65.13084069
       243    1        1.28659134       3.71406928      67.23183556
       244    1        2.57318268       4.45688314      63.02984583
       245    1        2.57318268       2.97125543      65.13084069
       246    1        2.57318268       5.94251085      67.23183556
       247    1        3.85977402       2.22844157      63.02984583
       248    1        3.85977402       5.19969700      65.13084069
       249    1        3.85977402       3.71406928      67.23183556
       250    1        5.14636536       4.45688314      63.02984583
       251    1        5.14636536       2.97125543      65.13084069
       252    1        5.14636536       5.94251085      67.23183556
       253    1        1.28659134       6.68532471      63.02984583
       254    1        1.28659134       9.65658014      65.13084069
       255    1        1.28659134       8.17095242      67.23183556
       256    1        2.57318268       8.91376628      63.02984583
       257    1        2.57318268       7.42813857      65.13084069
       258    1        2.57318268      10.39939399      67.23183556
       259    1        3.85977402       6.68532471      63.02984583
       260    1        3.85977402       9.65658014      65.13084069
       261    1        3.85977402       8.17095242      67.23183556
       262    1        5.14636536       8.91376628      63.02984583
       263    1        5.14636536       7.42813857      65.13084069
       264    1        5.14636536      10.39939399      67.23183556
       265    1        1.28659134       2.22844157      69.33283042
       266    1        1.28659134       5.19969700      71.43382528
       267    1        1.28659134       3.71406928      73.53482014
       268    1        2.57318268       4.45688314      69.33283042
       269    1        2.57318268       2.97125543      71.43382528
       270    1        2.57318268       5.94251085      73.53482014
       271    1        3.85977402       2.22844157      69.33283042
       272    1        3.85977402       5.19969700      71.43382528
       273    1        3.85977402       3.71406928      73.53482014
       274    1        5.14636536       4.45688314      69.33283042
       275    1        5.14636536       2.97125543      71.43382528
       276    1        5.14636536       5.94251085      73.53482014
       277    1        1.28659134       6.68532471      69.33283042
       278    1        1.28659134       9.65658014      71.43382528
       279    1        1.28659134       8.17095242      73.53482014
       280    1        2.57318268       8.91376628      69.33283042
       281    1        2.57318268       7.42813857      71.43382528
       282    1        2.57318268      10.39939399      73.53482014
       283    1        3.85977402       6.68532471      69.33283042
       284    1        3.85977402       9.65658014      71.43382528
       285    1        3.85977402       8.17095242      73.53482014
       286    1        5.14636536       8.91376628      69.33283042
       287    1        5.14636536       7.42813857      71.43382528
       288    1        5.14636536      10.39939399      73.53482014
